12
Atoms. Timestep: 0
C 0.0000 0.0000 0.0000
C 0.0000 0.0000 3.4000
C 0.0000 0.0000 6.8000
C 0.0000 0.0000 10.2000
C 0.0000 0.0000 13.6000
C 0.0000 0.0000 17.0000
C 0.0000 0.0000 20.4000
C 0.0000 0.0000 23.8000
C 0.0000 0.0000 27.2000
C 0.0000 0.0000 30.6000
C 0.0000 0.0000 34.0000
C 0.0000 0.0000 37.4000
